TITLE     = "| flow"
VARIABLES = "X/c"
"CF_X"
"CF_Y"
ZONE T="l6_700.dat"
 STRANDID=700, SOLUTIONTIME=7000000000
 Nodes=3460, Elements=3460, ZONETYPE=FELineSeg
 DATAPACKING=POINT
 DT=(SINGLE SINGLE SINGLE )
 2.300000041723E-001 2.599805779755E-002 6.289240438491E-003
 2.299995422363E-001 3.050228394568E-002 4.199573304504E-003
 2.299990653992E-001 2.686418220401E-002 -1.045482698828E-003
 2.299985736609E-001 2.512939274311E-002 -2.247579861432E-003
 2.299980372190E-001 2.429307438433E-002 -2.476804656908E-003
 2.299974858761E-001 2.378762699664E-002 -2.534332452342E-003
 2.299969047308E-001 2.343691699207E-002 -2.556407591328E-003
 2.299963086843E-001 2.316698245704E-002 -2.559497253969E-003
 2.299956679344E-001 2.284222096205E-002 -2.546344650909E-003
 2.299949973822E-001 2.274629287422E-002 -2.539494307712E-003
 2.299942821264E-001 2.256555296481E-002 -2.525780815631E-003
 2.299935519695E-001 2.239575609565E-002 -2.511664992198E-003
 2.299927771091E-001 2.223415300250E-002 -2.497508423403E-003
 2.299919575453E-001 2.207915298641E-002 -2.483460586518E-003
 2.299910932779E-001 2.192972600460E-002 -2.469567814842E-003
 2.299901992083E-001 2.178508415818E-002 -2.455830574036E-003
 2.299892604351E-001 2.164455316961E-002 -2.442236989737E-003
 2.299882620573E-001 2.150754444301E-002 -2.428772160783E-003
 2.299872189760E-001 2.137353084981E-002 -2.415411174297E-003
 2.299861311913E-001 2.124203369021E-002 -2.402129117399E-003
 2.299849838018E-001 2.111262641847E-002 -2.388906199485E-003
 2.299837768078E-001 2.098493836820E-002 -2.375731477514E-003
 2.299825102091E-001 2.085864730179E-002 -2.362592378631E-003
 2.299811840057E-001 2.073347568512E-002 -2.349473536015E-003
 2.299797832966E-001 2.060918137431E-002 -2.336359117180E-003
 2.299783229828E-001 2.048555016518E-002 -2.323237480596E-003
 2.299767881632E-001 2.036241255701E-002 -2.310102572665E-003
 2.299751639366E-001 2.023961953819E-002 -2.296948339790E-003
 2.299734801054E-001 2.011705003679E-002 -2.283766167238E-003
 2.299716919661E-001 1.999459601939E-002 -2.270550001413E-003
 2.299698293209E-001 1.987217366695E-002 -2.257295185700E-003
 2.299678623676E-001 1.974971406162E-002 -2.243998227641E-003
 2.299658060074E-001 1.962716691196E-002 -2.230657264590E-003
 2.299636453390E-001 1.950448192656E-002 -2.217268105596E-003
 2.299613654613E-001 1.938162744045E-002 -2.203826559708E-003
 2.299589812756E-001 1.925858296454E-002 -2.190337283537E-003
 2.299564778805E-001 1.913533918560E-002 -2.176803536713E-003
 2.299538403749E-001 1.901189051569E-002 -2.163222525269E-003
 2.299510836601E-001 1.888823881745E-002 -2.149593783543E-003
 2.299481779337E-001 1.876439526677E-002 -2.135920338333E-003
 2.299451380968E-001 1.864037103951E-002 -2.122207544744E-003
 2.299419343472E-001 1.851619035006E-002 -2.108457963914E-003
 2.299385815859E-001 1.839187927544E-002 -2.094673225656E-003
 2.299350649118E-001 1.826746761799E-002 -2.080857986584E-003
 2.299313545227E-001 1.814299076796E-002 -2.067017601803E-003
 2.299274653196E-001 1.801848039031E-002 -2.053154865280E-003
 2.299233824015E-001 1.789398118854E-002 -2.039274433628E-003
 2.299191057682E-001 1.776952855289E-002 -2.025382360443E-003
 2.299146056175E-001 1.764517091215E-002 -2.011484000832E-003
 2.299098819494E-001 1.752094924450E-002 -1.997584477067E-003
 2.299049198627E-001 1.739691384137E-002 -1.983687514439E-003
 2.298997193575E-001 1.727310568094E-002 -1.969799166545E-003
 2.298942506313E-001 1.714957505465E-002 -1.955925254151E-003
 2.298884987831E-001 1.702636852860E-002 -1.942070550285E-003
 2.298824787140E-001 1.690352708101E-002 -1.928238780238E-003
 2.298761457205E-001 1.678109727800E-002 -1.914435182698E-003
 2.298694998026E-001 1.665912568569E-002 -1.900665927678E-003
 2.298625111580E-001 1.653765141964E-002 -1.886934041977E-003
 2.298551946878E-001 1.641671545804E-002 -1.873243716545E-003
 2.298474907875E-001 1.629635877907E-002 -1.859599258751E-003
 2.298394143581E-001 1.617661677301E-002 -1.846004044637E-003
 2.298309355974E-001 1.605752296746E-002 -1.832461217418E-003
 2.298220247030E-001 1.593911089003E-002 -1.818972872570E-003
 2.298126667738E-001 1.582140661776E-002 -1.805542153306E-003
 2.298028469086E-001 1.570443809032E-002 -1.792170922272E-003
 2.297925353050E-001 1.558822859079E-002 -1.778860460036E-003
 2.297817170620E-001 1.547279860824E-002 -1.765611465089E-003
 2.297703474760E-001 1.535816304386E-002 -1.752423937432E-003
 2.297584116459E-001 1.524433493614E-002 -1.739297877066E-003
 2.297458648682E-001 1.513132452965E-002 -1.726233051158E-003
 2.297327071428E-001 1.501913834363E-002 -1.713227364235E-003
 2.297188937664E-001 1.490777917206E-002 -1.700278837234E-003
 2.297043800354E-001 1.479724235833E-002 -1.687384443358E-003
 2.296891510487E-001 1.468752510846E-002 -1.674541505054E-003
 2.296731472015E-001 1.457861904055E-002 -1.661744783632E-003
 2.296563535929E-001 1.447050925344E-002 -1.648989855312E-003
 2.296387106180E-001 1.436318084598E-002 -1.636271015741E-003
 2.296202033758E-001 1.425661146641E-002 -1.623581163585E-003
 2.296007573605E-001 1.415077690035E-002 -1.610913081095E-003
 2.295803278685E-001 1.404565107077E-002 -1.598258619197E-003
 2.295588999987E-001 1.394120138139E-002 -1.585608231835E-003
 2.295363843441E-001 1.383739802986E-002 -1.572952372953E-003
 2.295127511024E-001 1.373420469463E-002 -1.560280099511E-003
 2.294879257679E-001 1.363158877939E-002 -1.547580584884E-003
 2.294618636370E-001 1.352952327579E-002 -1.534842071123E-003
 2.294345051050E-001 1.342798583210E-002 -1.522053498775E-003
 2.294057756662E-001 1.332697831094E-002 -1.509204157628E-003
 2.293756157160E-001 1.322659477592E-002 -1.496297656558E-003
 2.293439358473E-001 1.312702242285E-002 -1.483362633735E-003
 2.293106764555E-001 1.302834413946E-002 -1.470426330343E-003
 2.292757481337E-001 1.293047517538E-002 -1.457490725443E-003
 2.292390763760E-001 1.283332984895E-002 -1.444545108825E-003
 2.292005717754E-001 1.273685414344E-002 -1.431576791219E-003
 2.291601300240E-001 1.264098659158E-002 -1.418573432602E-003
 2.291176766157E-001 1.254566572607E-002 -1.405521179549E-003
 2.290731072426E-001 1.245082914829E-002 -1.392406644300E-003
 2.290262877941E-001 1.235642191023E-002 -1.379216439091E-003
 2.289771437645E-001 1.226240210235E-002 -1.365938223898E-003
 2.289255261421E-001 1.216877158731E-002 -1.352561754175E-003
 2.288713455200E-001 1.207572221756E-002 -1.339104375802E-003
 2.288144379854E-001 1.198360789567E-002 -1.325621735305E-003
 2.287546843290E-001 1.189256738871E-002 -1.312162028626E-003
 2.286919504404E-001 1.180247310549E-002 -1.298734918237E-003
 2.286260724068E-001 1.171323191375E-002 -1.285337144509E-003
 2.285569012165E-001 1.162481959909E-002 -1.271966029890E-003
 2.284842580557E-001 1.153720542789E-002 -1.258621225134E-003
 2.284079939127E-001 1.145036332309E-002 -1.245302148163E-003
 2.283279001713E-001 1.136425416917E-002 -1.232009148225E-003
 2.282438129187E-001 1.127875037491E-002 -1.218733494170E-003
 2.281555086374E-001 1.119354926050E-002 -1.205439097248E-003
 2.280627936125E-001 1.110841333866E-002 -1.192082883790E-003
 2.279654294252E-001 1.102336309850E-002 -1.178646809421E-003
 2.278631925583E-001 1.093846559525E-002 -1.165129709989E-003
 2.277558445930E-001 1.085371430963E-002 -1.151531352662E-003
 2.276431173086E-001 1.076910551637E-002 -1.137852552347E-003
 2.275247573853E-001 1.068462617695E-002 -1.124095753767E-003
 2.274004667997E-001 1.060008537024E-002 -1.110246521421E-003
 2.272699475288E-001 1.051509194076E-002 -1.096259918995E-003
 2.271329164505E-001 1.042945031077E-002 -1.082091825083E-003
 2.269890010357E-001 1.034320704639E-002 -1.067723380402E-003
 2.268379032612E-001 1.025628857315E-002 -1.053140615113E-003
 2.266792207956E-001 1.016844250262E-002 -1.038320944645E-003
 2.265126109123E-001 1.007934752852E-002 -1.023221295327E-003
 2.263376563787E-001 9.988833218813E-003 -1.007750513963E-003
 2.261539399624E-001 9.897439740598E-003 -9.918943978846E-004
 2.259610146284E-001 9.808083064854E-003 -9.760953835212E-004
 2.257619947195E-001 9.723627939820E-003 -9.608202963136E-004
 2.255629450083E-001 9.642783552408E-003 -9.458121494390E-004
 2.253638952971E-001 9.564007632434E-003 -9.309778688475E-004
 2.251648306847E-001 9.486693888903E-003 -9.165272931568E-004
 2.249657511711E-001 9.411087259650E-003 -9.025381295942E-004
 2.247666418552E-001 9.337454102933E-003 -8.888998418115E-004
 2.245675474405E-001 9.265929460526E-003 -8.755719172768E-004
 2.243684232235E-001 9.196353144944E-003 -8.625251357444E-004
 2.241692841053E-001 9.128557518125E-003 -8.497401140630E-004
 2.239701300859E-001 9.062455035746E-003 -8.372050942853E-004
 2.237709760666E-001 8.998016826808E-003 -8.249152451754E-004
 2.235718071461E-001 8.935179561377E-003 -8.128675981425E-004
 2.233726233244E-001 8.873817510903E-003 -8.010549936444E-004
 2.231734246016E-001 8.813833817840E-003 -7.894678856246E-004
 2.229742109776E-001 8.755162358284E-003 -7.780965534039E-004
 2.227749824524E-001 8.697739802301E-003 -7.669318583794E-004
 2.225757539272E-001 8.641497232020E-003 -7.559648365714E-004
 2.223764955997E-001 8.586348034441E-003 -7.451854180545E-004
 2.221772372723E-001 8.532219566405E-003 -7.345826597884E-004
 2.219779640436E-001 8.479074575007E-003 -7.241474813782E-004
 2.217786759138E-001 8.426879532635E-003 -7.138731307350E-004
 2.215793877840E-001 8.375596255064E-003 -7.037534378469E-004
 2.213800847530E-001 8.325187489390E-003 -6.937834550627E-004
 2.211807668209E-001 8.275623433292E-003 -6.839588168077E-004
 2.209814339876E-001 8.226854726672E-003 -6.742752739228E-004
 2.207820862532E-001 8.178782649338E-003 -6.647240370512E-004
 2.205827385187E-001 8.131330832839E-003 -6.552924751304E-004
 2.203833758831E-001 8.084501139820E-003 -6.459716241807E-004
 2.201839983463E-001 8.038305677474E-003 -6.367567693815E-004
 2.199846059084E-001 7.992717437446E-003 -6.276443600655E-004
 2.197852134705E-001 7.947715930641E-003 -6.186315440573E-004
 2.195858061314E-001 7.903281599283E-003 -6.097161094658E-004
 2.193863838911E-001 7.859396748245E-003 -6.008961936459E-004
 2.191869616508E-001 7.816036231816E-003 -5.921692936681E-004
 2.189875245094E-001 7.773160934448E-003 -5.835312767886E-004
 2.187880724669E-001 7.730750832707E-003 -5.749779520556E-004
 2.185886055231E-001 7.688802666962E-003 -5.665062926710E-004
 2.183891385794E-001 7.647308986634E-003 -5.581141449511E-004
 2.181896567345E-001 7.606255356222E-003 -5.497996462509E-004
 2.179901599884E-001 7.565630134195E-003 -5.415612249635E-004
 2.177906632423E-001 7.525422610343E-003 -5.333976005204E-004
 2.175911515951E-001 7.485626265407E-003 -5.253074923530E-004
 2.173916250467E-001 7.446218281984E-003 -5.172896781005E-004
 2.171920984983E-001 7.407159544528E-003 -5.093408981338E-004
 2.169925570488E-001 7.368415594101E-003 -5.014558555558E-004
 2.167930006981E-001 7.329996209592E-003 -4.936309996992E-004
 2.165934443474E-001 7.291907910258E-003 -4.858648171648E-004
 2.163938730955E-001 7.254142314196E-003 -4.781559982803E-004
 2.161942869425E-001 7.216690108180E-003 -4.705037572421E-004
 2.159947007895E-001 7.179548032582E-003 -4.629072500393E-004
 2.157950997353E-001 7.142710965127E-003 -4.553660401143E-004
 2.155954837799E-001 7.106174714863E-003 -4.478797491174E-004
 2.153958678246E-001 7.069921586663E-003 -4.404475621413E-004
 2.151962369680E-001 7.033916190267E-003 -4.330667725299E-004
 2.149966061115E-001 6.998141296208E-003 -4.257335967850E-004
 2.147969603539E-001 6.962609477341E-003 -4.184456192888E-004
 2.145972996950E-001 6.927325855941E-003 -4.112018214073E-004
 2.143976390362E-001 6.892285775393E-003 -4.040015919600E-004
 2.141979634762E-001 6.857483647764E-003 -3.968444943894E-004
 2.139982730150E-001 6.822918076068E-003 -3.897302958649E-004
 2.137985825539E-001 6.788587197661E-003 -3.826587926596E-004
 2.135988920927E-001 6.754488684237E-003 -3.756297810469E-004
 2.133991867304E-001 6.720617413521E-003 -3.686431155074E-004
 2.131994664669E-001 6.686953362077E-003 -3.616979229264E-004
 2.129997462034E-001 6.653477437794E-003 -3.547919041011E-004
 2.128000110388E-001 6.620194762945E-003 -3.479231672827E-004
 2.126002609730E-001 6.587113253772E-003 -3.410907520447E-004
 2.124005109072E-001 6.554230116308E-003 -3.342943673488E-004
 2.122007608414E-001 6.521544419229E-003 -3.275337512605E-004
 2.120009958744E-001 6.489052437246E-003 -3.208087873645E-004
 2.118012160063E-001 6.456755567342E-003 -3.141194174532E-004
 2.116014361382E-001 6.424652878195E-003 -3.074655542150E-004
 2.114016413689E-001 6.392743904144E-003 -3.008471394423E-004
 2.112018465996E-001 6.361023988575E-003 -2.942642604467E-004
 2.110020369291E-001 6.329476367682E-003 -2.877163642552E-004
 2.108022272587E-001 6.298086605966E-003 -2.812015009113E-004
 2.106024026871E-001 6.266863085330E-003 -2.747181861196E-004
 2.104025781155E-001 6.235811393708E-003 -2.682658960111E-004
 2.102027386427E-001 6.204931531101E-003 -2.618443977553E-004
 2.100028991699E-001 6.174222100526E-003 -2.554536331445E-004
 2.098030596972E-001 6.143683101982E-003 -2.490936312824E-004
 2.096031904221E-001 6.113315466791E-003 -2.427643630654E-004
 2.094033360481E-001 6.083118263632E-003 -2.364659158047E-004
 2.092034667730E-001 6.053093355149E-003 -2.301981876371E-004
 2.090035825968E-001 6.023240275681E-003 -2.239614404971E-004
 2.088036984205E-001 5.993550643325E-003 -2.177556598326E-004
 2.086038142443E-001 5.964010488242E-003 -2.115797688020E-004
 2.084039151669E-001 5.934622138739E-003 -2.054325741483E-004
 2.082040160894E-001 5.905393045396E-003 -1.993134501390E-004
 2.080041170120E-001 5.876324605197E-003 -1.932221493917E-004
 2.078042030334E-001 5.847418680787E-003 -1.871586864581E-004
 2.076042741537E-001 5.818672478199E-003 -1.811231049942E-004
 2.074043601751E-001 5.790087860078E-003 -1.751154923113E-004
 2.072044163942E-001 5.761663895100E-003 -1.691358338576E-004
 2.070044875145E-001 5.733401980251E-003 -1.631841878407E-004
 2.068045437336E-001 5.705299787223E-003 -1.572603941895E-004
 2.066045999527E-001 5.677360575646E-003 -1.513642928330E-004
 2.064046412706E-001 5.649593193084E-003 -1.454958546674E-004
 2.062046974897E-001 5.622010212392E-003 -1.396558509441E-004
 2.060047239065E-001 5.594606045634E-003 -1.338453439530E-004
 2.058047652245E-001 5.567375104874E-003 -1.280648575630E-004
 2.056047916412E-001 5.540317390114E-003 -1.223144063260E-004
 2.054048180580E-001 5.513432901353E-003 -1.165938447230E-004
 2.052048444748E-001 5.486721172929E-003 -1.109030054067E-004
 2.050048559904E-001 5.460183136165E-003 -1.052417355822E-004
 2.048048675060E-001 5.433816928416E-003 -9.960989700630E-005
 2.046048790216E-001 5.407619755715E-003 -9.400736598764E-005
 2.044048905373E-001 5.381591618061E-003 -8.843382966006E-005
 2.042048871517E-001 5.355733446777E-003 -8.288885874208E-005
 2.040048837662E-001 5.330060608685E-003 -7.737208215985E-005
 2.038048952818E-001 5.304591730237E-003 -7.188394374680E-005
 2.036048769951E-001 5.279324017465E-003 -6.642649532296E-005
 2.034048736095E-001 5.254247225821E-003 -6.100104656070E-005
 2.032048553228E-001 5.229356233031E-003 -5.560756835621E-005
 2.030048519373E-001 5.204652901739E-003 -5.024579513702E-005
 2.028048336506E-001 5.180138163269E-003 -4.491538857110E-005
 2.026048153639E-001 5.155809223652E-003 -3.961596667068E-005
 2.024047970772E-001 5.131666082889E-003 -3.434720929363E-005
 2.022047787905E-001 5.107708275318E-003 -2.910880357376E-005
 2.020047605038E-001 5.083933472633E-003 -2.390046392975E-005
 2.018047273159E-001 5.060341209173E-003 -1.872173015727E-005
 2.016047090292E-001 5.036936141551E-003 -1.357205110253E-005
 2.014046907425E-001 5.013728048652E-003 -8.451102985418E-006
 2.012046575546E-001 4.990725312382E-003 -3.359108177392E-006
 2.010046392679E-001 4.967922810465E-003 1.702879671939E-006
 2.008046060801E-001 4.945313557982E-003 6.734505859640E-006
 2.006045877934E-001 4.922899883240E-003 1.173618147732E-005
 2.004045546055E-001 4.900681786239E-003 1.670826350164E-005
 2.002045363188E-001 4.878658801317E-003 2.165113983210E-005
 2.000045031309E-001 4.856829531491E-003 2.656516880961E-005
 1.998044848442E-001 4.835193045437E-003 3.145062510157E-005
 1.996044665575E-001 4.813744686544E-003 3.630779610830E-005
 1.994044482708E-001 4.792481195182E-003 4.113700924790E-005
 1.992044299841E-001 4.771399777383E-003 4.593918129103E-005
 1.990044116974E-001 4.750519059598E-003 5.071628038422E-005
 1.988043934107E-001 4.729888867587E-003 5.546969623538E-005
 1.986043751240E-001 4.709539003670E-003 6.019678767188E-005
 1.984043717384E-001 4.689441528171E-003 6.489194493042E-005
 1.982043683529E-001 4.669574089348E-003 6.955279968679E-005
 1.980043649673E-001 4.649935755879E-003 7.417989399983E-005
 1.978043615818E-001 4.630526527762E-003 7.877390453359E-005
 1.976043581963E-001 4.611345473677E-003 8.333576261066E-005
 1.974043697119E-001 4.592388868332E-003 8.786622493062E-005
 1.972043812275E-001 4.573654383421E-003 9.236596815754E-005
 1.970043927431E-001 4.555139224976E-003 9.683562529972E-005
 1.968044042587E-001 4.536839667708E-003 1.012757420540E-004
 1.966044306755E-001 4.518753848970E-003 1.056870023604E-004
 1.964044570923E-001 4.500884097070E-003 1.100705776480E-004
 1.962044984102E-001 4.483243916184E-003 1.144278357970E-004
 1.960045397282E-001 4.465847741812E-003 1.187589077745E-004
 1.958045810461E-001 4.448688589036E-003 1.230623747688E-004
 1.956046223640E-001 4.431756678969E-003 1.273374364246E-004
 1.954046785831E-001 4.415050148964E-003 1.315845584031E-004
 1.952047497034E-001 4.398568533361E-003 1.358044246444E-004
 1.950048059225E-001 4.382310900837E-003 1.399977918481E-004
 1.948048919439E-001 4.366276785731E-003 1.441654021619E-004
 1.946049630642E-001 4.350463394076E-003 1.483077940065E-004
 1.944050639868E-001 4.334868863225E-003 1.524255349068E-004
 1.942051500082E-001 4.319489002228E-003 1.565191487316E-004
 1.940052658319E-001 4.304320085794E-003 1.605891739018E-004
 1.938053667545E-001 4.289361648262E-003 1.646367891226E-004
 1.936054974794E-001 4.274632781744E-003 1.686647301540E-004
 1.934056133032E-001 4.260174464434E-003 1.726751506794E-004
 1.932057589293E-001 4.245999734849E-003 1.766657660482E-004
 1.930059045553E-001 4.232084844261E-003 1.806322834454E-004
 1.928060501814E-001 4.218413960189E-003 1.845733640948E-004
 1.926062256098E-001 4.204988479614E-003 1.884897792479E-004
 1.924063861370E-001 4.191808402538E-003 1.923824602272E-004
 1.922065764666E-001 4.178870934993E-003 1.962522946997E-004
 1.920067667961E-001 4.166172817349E-003 2.001000830205E-004
 1.918069720268E-001 4.153712652624E-003 2.039265091298E-004
 1.916071772575E-001 4.141485318542E-003 2.077321114484E-004
 1.914074122906E-001 4.129486624151E-003 2.115175011568E-004
 1.912076473236E-001 4.117711912841E-003 2.152832021238E-004
 1.910078823566E-001 4.106161650270E-003 2.190307568526E-004
 1.908081471920E-001 4.094860516489E-003 2.227635850431E-004
 1.906084120274E-001 4.083849489689E-003 2.264839131385E-004
 1.904086917639E-001 4.073132295161E-003 2.301886561327E-004
 1.902089864016E-001 4.062682390213E-003 2.338734921068E-004
 1.900092810392E-001 4.052487201989E-003 2.375375333941E-004
 1.898095905781E-001 4.042547661811E-003 2.411815657979E-004
 1.896099299192E-001 4.032862372696E-003 2.448066370562E-004
 1.894102692604E-001 4.023428075016E-003 2.484135911800E-004
 1.892106086016E-001 4.014241509140E-003 2.520031994209E-004
 1.890109777451E-001 4.005300812423E-003 2.555762766860E-004
 1.888113617897E-001 3.996602725238E-003 2.591334923636E-004
 1.886117458344E-001 3.988144453615E-003 2.626754576340E-004
 1.884121447802E-001 3.979923203588E-003 2.662028418854E-004
 1.882125735283E-001 3.971937578171E-003 2.697165764403E-004
 1.880130022764E-001 3.964192233980E-003 2.732181164902E-004
 1.878134459257E-001 3.956697415560E-003 2.767087717075E-004
 1.876139044762E-001 3.949454519898E-003 2.801883965731E-004
 1.874143779278E-001 3.942454699427E-003 2.836562925950E-004
 1.872148662806E-001 3.935694694519E-003 2.871125470847E-004
 1.870153695345E-001 3.929173108190E-003 2.905580040533E-004
 1.868158727884E-001 3.922889940441E-003 2.939933037851E-004
 1.866164058447E-001 3.916843794286E-003 2.974192611873E-004
 1.864169538021E-001 3.911032807082E-003 3.008364874404E-004
 1.862175166607E-001 3.905455116183E-003 3.042455064133E-004
 1.860180944204E-001 3.900108160451E-003 3.076468419749E-004
 1.858186721802E-001 3.894988447428E-003 3.110409015790E-004
 1.856192797422E-001 3.890091553330E-003 3.144279762637E-004
 1.854199022055E-001 3.885415615514E-003 3.178091719747E-004
 1.852205395699E-001 3.880974370986E-003 3.211873117834E-004
 1.850211918354E-001 3.876808565110E-003 3.245666157454E-004
 1.848218590021E-001 3.872939152643E-003 3.279466764070E-004
 1.846225410700E-001 3.869343781844E-003 3.313221095596E-004
 1.844232380390E-001 3.866004524752E-003 3.346902667545E-004
 1.842239499092E-001 3.862919984385E-003 3.380517300684E-004
 1.840246915817E-001 3.860088298097E-003 3.414072270971E-004
 1.838254332542E-001 3.857508767396E-003 3.447574563324E-004
 1.836261898279E-001 3.855176968500E-003 3.481030580588E-004
 1.834269762039E-001 3.853090573102E-003 3.514445561450E-004
 1.832277774811E-001 3.851247020066E-003 3.547824162524E-004
 1.830285787582E-001 3.849644213915E-003 3.581171040423E-004
 1.828294098377E-001 3.848278895020E-003 3.614490851760E-004
 1.826302558184E-001 3.847149899229E-003 3.647789126262E-004
 1.824311167002E-001 3.846254199743E-003 3.681070520543E-004
 1.822319924831E-001 3.845594590530E-003 3.714342892636E-004
 1.820328980684E-001 3.845171537250E-003 3.747614391614E-004
 1.818338036537E-001 3.844982944429E-003 3.780884726439E-004
 1.816347390413E-001 3.845025785267E-003 3.814153897110E-004
 1.814356744289E-001 3.845298429951E-003 3.847426269203E-004
 1.812366396189E-001 3.845799015835E-003 3.880706208292E-004
 1.810376197100E-001 3.846526844427E-003 3.913998079952E-004
 1.808386147022E-001 3.847480751574E-003 3.947305958718E-004
 1.806396245956E-001 3.848658641800E-003 3.980634501204E-004
 1.804406493902E-001 3.850059350953E-003 4.013986617792E-004
 1.802416890860E-001 3.851682180539E-003 4.047366674058E-004
 1.800427585840E-001 3.853523638099E-003 4.080776707269E-004
 1.798438429832E-001 3.855582792312E-003 4.114219918847E-004
 1.796449273825E-001 3.857856849208E-003 4.147700383328E-004
 1.794460415840E-001 3.860349534079E-003 4.181227996014E-004
 1.792471706867E-001 3.863070625812E-003 4.214818764012E-004
 1.790483146906E-001 3.866027574986E-003 4.248478508089E-004
 1.788494884968E-001 3.869213629514E-003 4.282192385290E-004
 1.786506623030E-001 3.872622037306E-003 4.315950791351E-004
 1.784518510103E-001 3.876251867041E-003 4.349757509772E-004
 1.782530695200E-001 3.880101488903E-003 4.383615159895E-004
 1.780543029308E-001 3.884169971570E-003 4.417527525220E-004
 1.778555512428E-001 3.888456150889E-003 4.451496351976E-004
 1.776568144560E-001 3.892958164215E-003 4.485524550546E-004
 1.774580925703E-001 3.897674148902E-003 4.519614158198E-004
 1.772593855858E-001 3.902602475137E-003 4.553766921163E-004
 1.770606935024E-001 3.907742444426E-003 4.587984876707E-004
 1.768620163202E-001 3.913091961294E-003 4.622269771062E-004
 1.766633689404E-001 3.918649628758E-003 4.656623932533E-004
 1.764647215605E-001 3.924415446818E-003 4.691049689427E-004
 1.762661039829E-001 3.930390812457E-003 4.725552862510E-004
 1.760675013065E-001 3.936576656997E-003 4.760134906974E-004
 1.758689135313E-001 3.942968789488E-003 4.794792330358E-004
 1.756703257561E-001 3.949565812945E-003 4.829524259549E-004
 1.754717677832E-001 3.956366796046E-003 4.864333022851E-004
 1.752732247114E-001 3.963370341808E-003 4.899219493382E-004
 1.750747114420E-001 3.970574587584E-003 4.934184835292E-004
 1.748761981726E-001 3.977979533374E-003 4.969229339622E-004
 1.746776998043E-001 3.985582850873E-003 5.004354752600E-004
 1.744792163372E-001 3.993383608758E-003 5.039561074227E-004
 1.742807477713E-001 4.001380875707E-003 5.074848304503E-004
 1.740823090076E-001 4.009573254734E-003 5.110218771733E-004
 1.738838702440E-001 4.017959348857E-003 5.145669565536E-004
 1.736854463816E-001 4.026537295431E-003 5.181204178371E-004
 1.734870523214E-001 4.035307560116E-003 5.216822028160E-004
 1.732886582613E-001 4.044267348945E-003 5.252521368675E-004
 1.730902791023E-001 4.053416661918E-003 5.288305110298E-004
 1.728919297457E-001 4.062754102051E-003 5.324170924723E-004
 1.726935803890E-001 4.072277806699E-003 5.360117647797E-004
 1.724952459335E-001 4.081986844540E-003 5.396146443672E-004
 1.722969263792E-001 4.091879352927E-003 5.432255566120E-004
 1.720986366272E-001 4.101954866201E-003 5.468444433063E-004
 1.719003468752E-001 4.112210590392E-003 5.504711298272E-004
 1.717020720243E-001 4.122646991163E-003 5.541056743823E-004
 1.715038120747E-001 4.133261740208E-003 5.577480187640E-004
 1.713055670261E-001 4.144053906202E-003 5.613980465569E-004
 1.711073368788E-001 4.155024886131E-003 5.650559323840E-004
 1.709091216326E-001 4.166173283011E-003 5.687216762453E-004
 1.707109063864E-001 4.177499096841E-003 5.723949871026E-004
 1.705127209425E-001 4.188992083073E-003 5.760743515566E-004
 1.703145354986E-001 4.200633149594E-003 5.797576159239E-004
 1.701163798571E-001 4.212413914502E-003 5.834450712427E-004
 1.699182242155E-001 4.224344156682E-003 5.871392204426E-004
 1.697200834751E-001 4.236428998411E-003 5.908413440920E-004
 1.695219576359E-001 4.248666111380E-003 5.945510347374E-004
 1.693238466978E-001 4.261054098606E-003 5.982681177557E-004
 1.691257506609E-001 4.273592494428E-003 6.019924185239E-004
 1.689276546240E-001 4.286280833185E-003 6.057239370421E-004
 1.687295734882E-001 4.299119114876E-003 6.094624986872E-004
 1.685315072536E-001 4.312106873840E-003 6.132079288363E-004
 1.683334559202E-001 4.325243644416E-003 6.169602274895E-004
 1.681354194880E-001 4.338528495282E-003 6.207193946466E-004
 1.679373979568E-001 4.351961892098E-003 6.244851392694E-004
 1.677393764257E-001 4.365542903543E-003 6.282574613579E-004
 1.675413697958E-001 4.379269201308E-003 6.320356042124E-004
 1.673433780670E-001 4.393131937832E-003 6.358185783029E-004
 1.671453863382E-001 4.407127853483E-003 6.396062672138E-004
 1.669474095106E-001 4.421259276569E-003 6.433993694372E-004
 1.667494475842E-001 4.435527604073E-003 6.471981760114E-004
 1.665515005589E-001 4.449932370335E-003 6.510025705211E-004
 1.663535535336E-001 4.464471247047E-003 6.548121455126E-004
 1.661556363106E-001 4.479145165533E-003 6.586267263629E-004
 1.659577041864E-001 4.493951797485E-003 6.624459638260E-004
 1.657598018646E-001 4.508890211582E-003 6.662696832791E-004
 1.655618995428E-001 4.523959942162E-003 6.700977683067E-004
 1.653640121222E-001 4.539161454886E-003 6.739298696630E-004
 1.651661396027E-001 4.554494284093E-003 6.777658709325E-004
 1.649682670832E-001 4.569958429784E-003 6.816059467383E-004
 1.647703945637E-001 4.585553891957E-003 6.854496314190E-004
 1.645725518465E-001 4.601275548339E-003 6.892957608216E-004
 1.643747091293E-001 4.617106169462E-003 6.931420648471E-004
 1.641768813133E-001 4.633033182472E-003 6.969876703806E-004
 1.639790534973E-001 4.649063572288E-003 7.008344400674E-004
 1.637812405825E-001 4.665202926844E-003 7.046840619296E-004
 1.635834276676E-001 4.681451711804E-003 7.085361285135E-004
 1.633856296539E-001 4.697807598859E-003 7.123901741579E-004
 1.631878465414E-001 4.714270122349E-003 7.162459078245E-004
 1.629900634289E-001 4.730839282274E-003 7.201032713056E-004
 1.627922803164E-001 4.747513681650E-003 7.239617989399E-004
 1.625945270061E-001 4.764293786138E-003 7.278213161044E-004
 1.623967587948E-001 4.781179130077E-003 7.316817063838E-004
 1.621990203857E-001 4.798170179129E-003 7.355427951552E-004
 1.620012670755E-001 4.815267864615E-003 7.394046406262E-004
 1.618035435677E-001 4.832473117858E-003 7.432670681737E-004
 1.616058051586E-001 4.849782679230E-003 7.471291464753E-004
 1.614080965519E-001 4.867177922279E-003 7.509882561862E-004
 1.612103730440E-001 4.884640220553E-003 7.548423600383E-004
 1.610126644373E-001 4.902174230665E-003 7.586938445456E-004
 1.608149707317E-001 4.919791128486E-003 7.625446887687E-004
 1.606172770262E-001 4.937491379678E-003 7.663950091228E-004
 1.604195833206E-001 4.955272655934E-003 7.702444563620E-004
 1.602219045162E-001 4.973135888577E-003 7.740926812403E-004
 1.600242406130E-001 4.991079680622E-003 7.779395091347E-004
 1.598265767097E-001 5.009105429053E-003 7.817846490070E-004
 1.596289128065E-001 5.027213133872E-003 7.856280426495E-004
 1.594312489033E-001 5.045402329415E-003 7.894695154391E-004
 1.592335999012E-001 5.063673015684E-003 7.933087763377E-004
 1.590359508991E-001 5.082026124001E-003 7.971458253451E-004
 1.588383167982E-001 5.100462585688E-003 8.009805460460E-004
 1.586406826973E-001 5.118981003761E-003 8.048125309870E-004
 1.584430634975E-001 5.137573927641E-003 8.086404413916E-004
 1.582454293966E-001 5.156230647117E-003 8.124628802761E-004
 1.580478101969E-001 5.174950230867E-003 8.162804297172E-004
 1.578502058983E-001 5.193738266826E-003 8.200941956602E-004
 1.576526015997E-001 5.212596151978E-003 8.239042363130E-004
 1.574549973011E-001 5.231523420662E-003 8.277102606371E-004
 1.572573930025E-001 5.250518675894E-003 8.315119193867E-004
 1.570598036051E-001 5.269582848996E-003 8.353090961464E-004
 1.568622142076E-001 5.288714077324E-003 8.391014416702E-004
 1.566646248102E-001 5.307912826538E-003 8.428887231275E-004
 1.564670503139E-001 5.327180027962E-003 8.466706494801E-004
 1.562694609165E-001 5.346513818949E-003 8.504471043125E-004